Siesta Version  : 4.1.5
Architecture    : unknown
Compiler version: GNU Fortran (GCC) 9.3.0
Compiler flags  : x86_64-apple-darwin13.4.0-gfortran -march=core2 -mtune=haswell -ftree-vectoriize -fPIC -fstack-protector -O2 -pipe
PP flags        : -DFC_HAVE_ABORT -DCDF -DNCDF -DNCDF_4
Libraries       : libncdf.a libfdict.a -llapack -lblas -lnetcdff -lnetcdf -lhdf5_hl -lhdf5 -lz
SERIAL version
NetCDF support
NetCDF-4 support

* Running in serial mode
>> Start of run:   5-MAR-2024  20:29:52

                           ***********************       
                           *  WELCOME TO SIESTA  *       
                           ***********************       

reinit: Reading from standard input
reinit: Dumped input in INPUT_TMP.08256
************************** Dump of input data file ****************************
SystemLabel C60
#Input structure
%include C60_coords.fdf
#Calculation details
PAO.EnergyShift            50 meV
PAO.BasisSize DZP
PAO.SoftDefault            .true.
PAO.BasisType              split
XC.functional     GGA
XC.authors        PBE
MeshCutoff 250. Ry
#Data save
CDF.Save true
CDF.Compress 9
SaveHS true
SaveRho true
#Output structure XYZ format for visualization
WriteCoorXmol          true         #Save the final coordinates in .xyz format
************************** End of input data file *****************************

reinit: -----------------------------------------------------------------------
reinit: System Name: 
reinit: -----------------------------------------------------------------------
reinit: System Label: C60
reinit: -----------------------------------------------------------------------

initatom: Reading input for the pseudopotentials and atomic orbitals ----------
Species number:   1 Atomic number:    6 Label: C

Ground state valence configuration:   2s02  2p02
Reading pseudopotential information in formatted form from C.psf

Pseudopotential generated from a relativistic atomic calculation

Valence configuration for pseudopotential generation:
2s( 2.00) rc: 1.25
2p( 2.00) rc: 1.25
3d( 0.00) rc: 1.25
4f( 0.00) rc: 1.25
For C, standard SIESTA heuristics set lmxkb to 3
 (one more than the basis l, including polarization orbitals).
Use PS.lmax or PS.KBprojectors blocks to override.

<basis_specs>
===============================================================================
C                    Z=   6    Mass=  12.010        Charge= 0.17977+309
Lmxo=1 Lmxkb= 3    BasisType=split      Semic=F
L=0  Nsemic=0  Cnfigmx=2
          i=1  nzeta=2  polorb=0  (2s)
            splnorm:   0.15000    
               vcte:    40.000    
               rinn:  -0.90000    
               qcoe:    0.0000    
               qyuk:    0.0000    
               qwid:   0.10000E-01
                rcs:    0.0000      0.0000    
            lambdas:    1.0000      1.0000    
L=1  Nsemic=0  Cnfigmx=2
          i=1  nzeta=2  polorb=1  (2p)
            splnorm:   0.15000    
               vcte:    40.000    
               rinn:  -0.90000    
               qcoe:    0.0000    
               qyuk:    0.0000    
               qwid:   0.10000E-01
                rcs:    0.0000      0.0000    
            lambdas:    1.0000      1.0000    
-------------------------------------------------------------------------------
L=0  Nkbl=1  erefs: 0.17977+309
L=1  Nkbl=1  erefs: 0.17977+309
L=2  Nkbl=1  erefs: 0.17977+309
L=3  Nkbl=1  erefs: 0.17977+309
===============================================================================
</basis_specs>

atom: Called for C                     (Z =   6)

read_vps: Pseudopotential generation method:
read_vps: ATM3.3    Troullier-Martins                       
Valence charge for ps generation:    4.00000

xc_check: Exchange-correlation functional:
xc_check: GGA Perdew, Burke & Ernzerhof 1996
V l=0 = -2*Zval/r beyond r=  1.5418
V l=1 = -2*Zval/r beyond r=  1.5418
V l=2 = -2*Zval/r beyond r=  1.5418
V l=3 = -2*Zval/r beyond r=  1.5418
All V_l potentials equal beyond r=  1.2311
This should be close to max(r_c) in ps generation
All pots = -2*Zval/r beyond r=  1.5418

VLOCAL1: 99.0% of the norm of Vloc inside     28.641 Ry
VLOCAL1: 99.9% of the norm of Vloc inside     65.273 Ry
atom: Maximum radius for 4*pi*r*r*local-pseudopot. charge    1.48507
atom: Maximum radius for r*vlocal+2*Zval:    1.27815
GHOST: No ghost state for L =  0
GHOST: No ghost state for L =  1
GHOST: No ghost state for L =  2
GHOST: No ghost state for L =  3

KBgen: Kleinman-Bylander projectors: 
   l= 0   rc=  1.747182   el= -1.010225   Ekb=  7.798448   kbcos=  0.282075
   l= 1   rc=  1.769164   el= -0.388560   Ekb= -4.766042   kbcos= -0.279362
   l= 2   rc=  1.979871   el=  0.001971   Ekb= -1.288752   kbcos= -0.004914
   l= 3   rc=  2.055542   el=  0.003065   Ekb= -0.648726   kbcos= -0.000427

KBgen: Total number of Kleinman-Bylander projectors:   16
atom: -------------------------------------------------------------------------

atom: SANKEY-TYPE ORBITALS:
atom: Selected multiple-zeta basis: split     

SPLIT: Orbitals with angular momentum L= 0

SPLIT: Basis orbitals for state 2s

SPLIT: PAO cut-off radius determined from an
SPLIT: energy shift=  0.003675 Ry

   izeta = 1
                 lambda =    1.000000
                     rc =    4.993604
                 energy =   -1.006149
                kinetic =    0.880407
    potential(screened) =   -1.886556
       potential(ionic) =   -5.452679

   izeta = 2
                 rmatch =    3.475094
              splitnorm =    0.150000
                 energy =   -0.864732
                kinetic =    1.379091
    potential(screened) =   -2.243822
       potential(ionic) =   -6.057036

SPLIT: Orbitals with angular momentum L= 1

SPLIT: Basis orbitals for state 2p

SPLIT: PAO cut-off radius determined from an
SPLIT: energy shift=  0.003675 Ry

   izeta = 1
                 lambda =    1.000000
                     rc =    6.253707
                 energy =   -0.384630
                kinetic =    2.425972
    potential(screened) =   -2.810602
       potential(ionic) =   -6.235914

   izeta = 2
                 rmatch =    3.699245
              splitnorm =    0.150000
                 energy =   -0.249362
                kinetic =    3.653971
    potential(screened) =   -3.903334
       potential(ionic) =   -7.726430

POLgen: Perturbative polarization orbital with L=  2

POLgen: Polarization orbital for state 2p

   izeta = 1
                     rc =    6.253707
                 energy =    1.037476
                kinetic =    2.153856
    potential(screened) =   -1.116380
       potential(ionic) =   -3.873191
atom: Total number of Sankey-type orbitals: 13

atm_pop: Valence configuration (for local Pseudopot. screening):
 2s( 2.00)                                                            
 2p( 2.00)                                                            
Vna: chval, zval:    4.00000   4.00000

Vna:  Cut-off radius for the neutral-atom potential:   6.253707

atom: _________________________________________________________________________

prinput: Basis input ----------------------------------------------------------

PAO.BasisType split     

%block ChemicalSpeciesLabel
    1    6 C                       # Species index, atomic number, species label
%endblock ChemicalSpeciesLabel

%block PAO.Basis                 # Define Basis set
C                     2                    # Species label, number of l-shells
 n=2   0   2                         # n, l, Nzeta 
   4.994      3.475   
   1.000      1.000   
 n=2   1   2 P   1                   # n, l, Nzeta, Polarization, NzetaPol
   6.254      3.699   
   1.000      1.000   
%endblock PAO.Basis

prinput: ----------------------------------------------------------------------

Dumping basis to NetCDF file C.ion.nc
coor:   Atomic-coordinates input format  =     Fractional

siesta: Atomic coordinates (Bohr) and species
siesta:      4.68004   1.27638   5.58711  1        1
siesta:      6.56113   0.38226   3.43822  1        2
siesta:      2.76224  -0.66950   6.84189  1        3
siesta:      6.50498  -2.46852   2.51604  1        4
siesta:      6.70151  -3.09699  -0.41682  1        5
siesta:      6.80302   2.61538   1.44267  1        6
siesta:      7.00387   1.97611  -1.48155  1        7
siesta:      6.95204  -0.86819  -2.42101  1        8
siesta:     -0.94810   2.92206   6.75334  1        9
siesta:      0.94162   4.88521   5.51584  1       10
siesta:     -0.06479   0.13606   7.42501  1       11
siesta:      3.76650   4.05805   4.93057  1       12
siesta:      5.07959   4.89817   2.37350  1       13
siesta:     -0.56800   6.53738   3.52677  1       14
siesta:      0.72781   7.35374   0.94378  1       15
siesta:      3.56780   6.53953   0.36931  1       16
siesta:     -4.51375  -1.77526   5.60439  1       17
siesta:     -5.42298   1.00641   4.93489  1       18
siesta:     -1.82494  -2.21368   6.85485  1       19
siesta:     -3.64339   3.35400   5.50936  1       20
siesta:     -3.42095   5.58495   3.52461  1       21
siesta:     -6.97795   0.87683   2.37782  1       22
siesta:     -6.74471   3.11211   0.37795  1       23
siesta:     -4.95648   5.46185   0.95026  1       24
siesta:     -1.06041  -6.29117   3.75138  1       25
siesta:     -3.76434  -5.85707   2.51388  1       26
siesta:     -0.08423  -4.46623   5.92834  1       27
siesta:     -5.50504  -3.59588   3.44254  1       28
siesta:     -7.04058  -1.97395   1.44699  1       29
siesta:     -3.57212  -6.49202  -0.41034  1       30
siesta:     -5.08391  -4.84634  -2.41237  1       31
siesta:     -6.83325  -2.58083  -1.48587  1       32
siesta:      4.61309  -4.43816   3.74922  1       33
siesta:      3.64771  -6.26525   1.57441  1       34
siesta:      2.76008  -3.53541   5.92402  1       35
siesta:      0.79477  -7.19824   1.57657  1       36
siesta:     -0.74293  -7.32134  -0.99130  1       37
siesta:      4.94353  -5.45321  -1.00210  1       38
siesta:      3.41015  -5.55472  -3.58076  1       39
siesta:      0.55288  -6.48986  -3.56996  1       40
siesta:     -4.71460  -1.24830  -5.61087  1       41
siesta:     -3.77513  -4.03646  -4.98456  1       42
siesta:     -0.94594  -4.85282  -5.58279  1       43
siesta:     -2.76656   0.68894  -6.83973  1       44
siesta:     -4.64981   4.43816  -3.75354  1       45
siesta:     -6.58489   2.49012  -2.55059  1       46
siesta:     -6.62160  -0.35203  -3.47926  1       47
siesta:     -2.73416   3.54405  -5.88947  1       48
siesta:      1.08848   6.34084  -3.76218  1       49
siesta:     -0.81852   7.24791  -1.62193  1       50
siesta:     -3.65851   6.30413  -1.61761  1       51
siesta:      0.11230   4.47703  -5.90891  1       52
siesta:      4.53103   1.80118  -5.62599  1       53
siesta:      5.51152   3.65419  -3.47926  1       54
siesta:      3.79889   5.92834  -2.55275  1       55
siesta:      1.81846   2.20504  -6.86565  1       56
siesta:      0.96322  -2.91342  -6.83757  1       57
siesta:      3.66715  -3.34320  -5.59575  1       58
siesta:      5.43809  -0.99778  -5.00400  1       59
siesta:      0.04751  -0.13822  -7.46820  1       60

siesta: System type = molecule  

initatomlists: Number of atoms, orbitals, and projectors:     60   780   960

coxmol: Writing XMOL coordinates into file C60.xyz                                                             

siesta: ******************** Simulation parameters ****************************
siesta:
siesta: The following are some of the parameters of the simulation.
siesta: A complete list of the parameters used, including default values,
siesta: can be found in file out.fdf
siesta:
redata: Spin configuration                          = none
redata: Number of spin components                   = 1
redata: Time-Reversal Symmetry                      = T
redata: Spin spiral                                 = F
redata: Long output                                 =   F
redata: Number of Atomic Species                    =        1
redata: Charge density info will appear in .RHO file
redata: Write Mulliken Pop.                         = NO
redata: Matel table size (NRTAB)                    =     1024
redata: Mesh Cutoff                                 =   250.0000 Ry
redata: Net charge of the system                    =     0.0000 |e|
redata: Min. number of SCF Iter                     =        0
redata: Max. number of SCF Iter                     =     1000
redata: SCF convergence failure will abort job
redata: SCF mix quantity                            = Hamiltonian
redata: Mix DM or H after convergence               =   F
redata: Recompute H after scf cycle                 =   F
redata: Mix DM in first SCF step                    =   T
redata: Write Pulay info on disk                    =   F
redata: New DM Occupancy tolerance                  = 0.000000000001
redata: No kicks to SCF
redata: DM Mixing Weight for Kicks                  =     0.5000
redata: Require Harris convergence for SCF          =   F
redata: Harris energy tolerance for SCF             =     0.000100 eV
redata: Require DM convergence for SCF              =   T
redata: DM tolerance for SCF                        =     0.000100
redata: Require EDM convergence for SCF             =   F
redata: EDM tolerance for SCF                       =     0.001000 eV
redata: Require H convergence for SCF               =   T
redata: Hamiltonian tolerance for SCF               =     0.001000 eV
redata: Require (free) Energy convergence for SCF   =   F
redata: (free) Energy tolerance for SCF             =     0.000100 eV
redata: Using Saved Data (generic)                  =   F
redata: Use continuation files for DM               =   F
redata: Neglect nonoverlap interactions             =   F
redata: Method of Calculation                       = Diagonalization
redata: Electronic Temperature                      =   299.9869 K
redata: Fix the spin of the system                  =   F
redata: Dynamics option                             = Single-point calculation
mix.SCF: Pulay mixing                            = Pulay
mix.SCF:    Variant                              = stable
mix.SCF:    History steps                        = 2
mix.SCF:    Linear mixing weight                 =     0.250000
mix.SCF:    Mixing weight                        =     0.250000
mix.SCF:    SVD condition                        = 0.1000E-07
redata: Save all siesta data in one NC              =   T
redata: NC compression level                        =        9
redata: ***********************************************************************

%block SCF.Mixers
  Pulay
%endblock SCF.Mixers

%block SCF.Mixer.Pulay
  # Mixing method
  method pulay
  variant stable

  # Mixing options
  weight 0.2500
  weight.linear 0.2500
  history 2
%endblock SCF.Mixer.Pulay

DM_history_depth set to one: no extrapolation allowed by default for geometry relaxation
Size of DM history Fstack: 1
Total number of electrons:   240.000000
Total ionic charge:   240.000000
 Kpoints in:            1 . Kpoints trimmed:            1

siesta: k-grid: Number of k-points =     1
siesta: k-grid: Cutoff (effective) =     8.000 Ang
siesta: k-grid: Supercell and displacements
siesta: k-grid:    1   0   0      0.000
siesta: k-grid:    0   1   0      0.000
siesta: k-grid:    0   0   1      0.000

diag: Algorithm                                     = D&C
diag: Used triangular part                          = Lower
diag: Absolute tolerance                            =  0.100E-15
diag: Orthogonalization factor                      =  0.100E-05
diag: Memory factor                                 =  1.0000


ts: **************************************************************
ts: Save H and S matrices                           =    F
ts: Save DM and EDM matrices                        =    F
ts: Only save the overlap matrix S                  =    F
ts: **************************************************************

************************ Begin: TS CHECKS AND WARNINGS ************************
************************ End: TS CHECKS AND WARNINGS **************************


                     ====================================
                        Single-point calculation
                     ====================================

outcell: Unit cell vectors (Ang):
       16.000000    0.000000    0.000000
        0.000000   16.000000    0.000000
        0.000000    0.000000   16.000000

outcell: Cell vector modules (Ang)   :   16.000000   16.000000   16.000000
outcell: Cell angles (23,13,12) (deg):     90.0000     90.0000     90.0000
outcell: Cell volume (Ang**3)        :   4096.0000
<dSpData1D:S at geom step 0
  <sparsity:sparsity for geom step 0
    nrows_g=780 nrows=780 sparsity=.6767 nnzs=411720, refcount: 7>
  <dData1D:(new from dSpData1D) n=411720, refcount: 1>
refcount: 1>
new_DM -- step:     1
Initializing Density Matrix...
DM filled with atomic data:
<dSpData2D:DM initialized from atoms
  <sparsity:sparsity for geom step 0
    nrows_g=780 nrows=780 sparsity=.6767 nnzs=411720, refcount: 8>
  <dData2D:DM n=411720 m=1, refcount: 1>
refcount: 1>
No. of atoms with KB's overlaping orbs in proc 0. Max # of overlaps:      60     196
New grid distribution:   1
           1       1:   80    1:   80    1:   80

InitMesh: MESH =   160 x   160 x   160 =     4096000
InitMesh: (bp) =    80 x    80 x    80 =      512000
InitMesh: Mesh cutoff (required, used) =   250.000   276.377 Ry
ExtMesh (bp) on 0 =   148 x   148 x   148 =     3241792
PhiOnMesh: Number of (b)points on node 0 =               512000
PhiOnMesh: nlist on node 0 =             11381629

stepf: Fermi-Dirac step function

siesta: Program's energy decomposition (eV):
siesta: Ebs     =     -2755.379641
siesta: Eions   =     18968.068884
siesta: Ena     =      6453.867983
siesta: Ekin    =      6222.074979
siesta: Enl     =       -93.164714
siesta: Eso     =         0.000000
siesta: Edftu   =         0.000000
siesta: DEna    =      -163.865667
siesta: DUscf   =        16.555983
siesta: DUext   =         0.000000
siesta: Exc     =     -2706.454238
siesta: eta*DQ  =         0.000000
siesta: Emadel  =         0.000000
siesta: Emeta   =         0.000000
siesta: Emolmec =         0.000000
siesta: Ekinion =         0.000000
siesta: Eharris =     -9247.931957
siesta: Etot    =     -9239.054559
siesta: FreeEng =     -9239.054559

        iscf     Eharris(eV)        E_KS(eV)     FreeEng(eV)     dDmax    Ef(eV) dHmax(eV)
   scf:    1    -9247.931957    -9239.054559    -9239.054559  1.777827 -6.351992  2.995524
timer: Routine,Calls,Time,% = IterSCF        1      20.778  62.71
   scf:    2    -9243.640963    -9241.724700    -9241.724700  0.024563 -5.798847  1.428834
   scf:    3    -9242.679723    -9242.330898    -9242.330898  0.026784 -5.377279  0.314108
   scf:    4    -9242.451965    -9242.396396    -9242.396396  0.007381 -5.328073  0.178031
   scf:    5    -9242.433599    -9242.418140    -9242.418140  0.005353 -5.298554  0.116866
   scf:    6    -9242.420794    -9242.420452    -9242.420452  0.001722 -5.296379  0.066932
   scf:    7    -9242.422308    -9242.421547    -9242.421547  0.000833 -5.294418  0.029440
   scf:    8    -9242.422615    -9242.422108    -9242.422108  0.000554 -5.292946  0.017340
   scf:    9    -9242.422655    -9242.422409    -9242.422409  0.000505 -5.292917  0.012905
   scf:   10    -9242.422486    -9242.422459    -9242.422459  0.000179 -5.293233  0.006335
   scf:   11    -9242.422511    -9242.422487    -9242.422487  0.000100 -5.293624  0.002697
   scf:   12    -9242.422520    -9242.422504    -9242.422504  0.000074 -5.294169  0.002638
   scf:   13    -9242.422523    -9242.422514    -9242.422514  0.000068 -5.294870  0.001939
   scf:   14    -9242.422519    -9242.422516    -9242.422516  0.000030 -5.295030  0.001792
   scf:   15    -9242.422518    -9242.422518    -9242.422518  0.000017 -5.295169  0.001130
   scf:   16    -9242.422519    -9242.422518    -9242.422518  0.000014 -5.295588  0.001066
   scf:   17    -9242.422519    -9242.422518    -9242.422518  0.000010 -5.295992  0.000698

SCF Convergence by DM+H criterion
max |DM_out - DM_in|         :     0.0000103820
max |H_out - H_in|      (eV) :     0.0006983142
SCF cycle converged after 17 iterations

Using DM_out to compute the final energy and forces
No. of atoms with KB's overlaping orbs in proc 0. Max # of overlaps:      60     196

siesta: E_KS(eV) =            -9242.4225

siesta: E_KS - E_eggbox =     -9242.4225

siesta: Atomic forces (eV/Ang):
----------------------------------------
   Tot   -0.024252   -0.034274    0.027849
----------------------------------------
   Max    2.614707
   Res    1.480108    sqrt( Sum f_i^2 / 3N )
----------------------------------------
   Max    2.614707    constrained

Stress tensor Voigt[x,y,z,yz,xz,xy] (kbar):       75.71       76.01       75.74        0.27       -0.18        0.14
(Free)E + p*V (eV/cell)    -9436.2517
Target enthalpy (eV/cell)    -9242.4225

coxmol: Writing XMOL coordinates into file C60.xyz                                                             

siesta: Program's energy decomposition (eV):
siesta: Ebs     =     -3074.651146
siesta: Eions   =     18968.068884
siesta: Ena     =      6453.867983
siesta: Ekin    =      6105.771543
siesta: Enl     =       -75.383871
siesta: Eso     =         0.000000
siesta: Edftu   =         0.000000
siesta: DEna    =       -84.236731
siesta: DUscf   =         9.999566
siesta: DUext   =         0.000000
siesta: Exc     =     -2684.372125
siesta: eta*DQ  =         0.000000
siesta: Emadel  =         0.000000
siesta: Emeta   =         0.000000
siesta: Emolmec =         0.000000
siesta: Ekinion =         0.000000
siesta: Eharris =     -9242.422519
siesta: Etot    =     -9242.422518
siesta: FreeEng =     -9242.422518

siesta: Final energy (eV):
siesta:  Band Struct. =   -3074.651146
siesta:       Kinetic =    6105.771543
siesta:       Hartree =   31275.752263
siesta:       Edftu   =       0.000000
siesta:       Eso     =       0.000000
siesta:    Ext. field =       0.000000
siesta:   Exch.-corr. =   -2684.372125
siesta:  Ion-electron =  -68240.272481
siesta:       Ion-ion =   24300.698281
siesta:       Ekinion =       0.000000
siesta:         Total =   -9242.422518
siesta:         Fermi =      -5.295992

siesta: Atomic forces (eV/Ang):
siesta:      1   -1.970258   -0.763114   -1.326932
siesta:      2   -2.164549   -0.765611   -1.273686
siesta:      3   -0.200601    0.534817   -2.472402
siesta:      4   -1.935012    1.377204   -0.708935
siesta:      5   -1.910182    1.524160   -0.390117
siesta:      6   -2.061543   -1.024921   -1.175742
siesta:      7   -2.218784   -0.281715    1.126827
siesta:      8   -2.141217   -0.391776    1.303205
siesta:      9    0.244720   -1.542573   -1.988742
siesta:     10    0.538004   -1.760319   -1.834641
siesta:     11    0.082476    0.700335   -2.515013
siesta:     12   -1.831726   -1.024963   -1.347785
siesta:     13   -1.900436   -1.253753   -1.269682
siesta:     14    0.346011   -1.894462   -1.769071
siesta:     15   -0.468363   -2.430328    0.375160
siesta:     16   -0.765530   -2.375986    0.434339
siesta:     17    1.931856    0.543996   -1.481173
siesta:     18    2.077298    0.195321   -1.330831
siesta:     19   -0.092314    0.871020   -2.467256
siesta:     20    0.630703   -1.614368   -1.811078
siesta:     21    0.783660   -1.752522   -1.738494
siesta:     22    2.175875    0.394609   -1.280696
siesta:     23    1.955729   -1.494903    0.396175
siesta:     24    1.844333   -1.651102    0.357349
siesta:     25    0.442955    2.314856   -0.730237
siesta:     26    0.706885    2.336398   -0.525547
siesta:     27   -0.278479    0.831901   -2.455419
siesta:     28    2.232358    0.401757   -1.271250
siesta:     29    2.321182    0.639909   -1.120466
siesta:     30    0.844249    2.404760   -0.375244
siesta:     31    1.896303    1.070777    1.228370
siesta:     32    2.079377    0.869747    1.195044
siesta:     33   -1.769287    1.734560   -0.690573
siesta:     34   -1.944554    1.652620   -0.471379
siesta:     35   -0.617159    0.952515   -2.345784
siesta:     36    0.535561    2.483974   -0.436016
siesta:     37    0.421205    2.553899   -0.327176
siesta:     38   -1.819445    1.856841   -0.246856
siesta:     39   -0.756997    1.665774    1.725982
siesta:     40   -0.292159    1.819468    1.621574
siesta:     41    2.149492    0.777230    1.165033
siesta:     42    1.655463    1.226849    1.468668
siesta:     43   -0.493327    1.610160    1.980339
siesta:     44    0.149735   -0.563134    2.397182
siesta:     45    2.127046   -1.449652    0.421686
siesta:     46    2.240331   -1.291978    0.741836
siesta:     47    2.253093    0.621328    1.327904
siesta:     48    0.304989   -1.017650    2.156719
siesta:     49   -0.681045   -2.452939    0.447029
siesta:     50   -0.147558   -2.540480    0.564807
siesta:     51    1.607129   -1.956754    0.566264
siesta:     52    0.078920   -0.873103    2.312894
siesta:     53   -2.211655   -0.584278    1.172008
siesta:     54   -2.114360   -0.863795    1.290612
siesta:     55   -0.983795   -2.390299    0.666534
siesta:     56    0.282793   -0.581681    2.496789
siesta:     57   -0.479270    1.567191    2.113599
siesta:     58   -0.796621    1.559508    1.964812
siesta:     59   -2.041183   -0.025145    1.572626
siesta:     60    0.123426   -0.514453    2.614707
siesta: ----------------------------------------
siesta:    Tot   -0.024252   -0.034274    0.027849

siesta: Stress tensor (static) (eV/Ang**3):
siesta:     0.047253    0.000090   -0.000113
siesta:     0.000090    0.047441    0.000166
siesta:    -0.000113    0.000166    0.047271

siesta: Cell volume =       4096.000000 Ang**3

siesta: Pressure (static):
siesta:                Solid            Molecule  Units
siesta:          -0.00051539         -0.00000042  Ry/Bohr**3
siesta:          -0.04732159         -0.00003842  eV/Ang**3
siesta:         -75.81835982         -0.06155248  kBar
(Free)E+ p_basis*V_orbitals  =       -9209.588644
(Free)Eharris+ p_basis*V_orbitals  =       -9209.588644

siesta: Electric dipole (a.u.)  =   -0.000654   -0.003244   -0.015824
siesta: Electric dipole (Debye) =   -0.001662   -0.008244   -0.040221

cite: Please see "C60.bib" for an exhaustive BiBTeX file.
cite: Please clearly indicate Siesta version in published work: 4.1.5
cite: This calculation has made use of the following articles
cite: which are encouraged to be cited in a published work.
        Primary SIESTA paper
          DOI: www.doi.org/10.1088/0953-8984/14/11/302


timer: Elapsed wall time (sec) =     228.363
timer: CPU execution times (sec):

Routine            Calls   Time/call    Tot.time        %
siesta                 1     277.225     277.225   100.00
Setup                  1       0.263       0.263     0.09
bands                  1       0.000       0.000     0.00
KSV_init               1       0.000       0.000     0.00
IterGeom               1     269.836     269.836    97.33
state_init             1       1.370       1.370     0.49
hsparse                1       0.024       0.024     0.01
overlap                1       0.154       0.154     0.06
CDF-basis              1       0.011       0.011     0.00
CDF                   19       2.526      47.997    17.31
Setup_H0               1      10.717      10.717     3.87
naefs                  2       0.000       0.001     0.00
MolMec                 2       0.000       0.000     0.00
kinefsm                2       0.122       0.243     0.09
nlefsm                 2       0.516       1.032     0.37
DHSCF_Init             1      10.056      10.056     3.63
DHSCF1                 1       0.038       0.038     0.01
INITMESH               1       0.000       0.000     0.00
DHSCF2                 1      10.017      10.017     3.61
REMESH                 1       1.594       1.594     0.57
REORD                 47       0.003       0.151     0.05
PHION                  1       7.575       7.575     2.73
COMM_BSC              82       0.002       0.184     0.07
POISON                21       0.233       4.896     1.77
fft                   42       0.096       4.035     1.46
IterSCF               17      13.301     226.124    81.57
setup_H               18       7.635     137.430    49.57
DHSCF                 20       8.606     172.114    62.08
DHSCF3                20       7.548     150.967    54.46
rhoofd                20       4.136      82.711    29.84
XC                    20       1.493      29.867    10.77
GXC-CellXC            20       1.488      29.751    10.73
cellXC                20       1.488      29.751    10.73
vmat                  19       1.644      31.236    11.27
writeHSX              19       0.041       0.777     0.28
compute_dm            17       2.582      43.898    15.83
diagon                17       2.574      43.751    15.78
r-eigvec              17       1.980      33.660    12.14
r-buildHS             17       0.009       0.156     0.06
rdiag                 17       1.971      33.503    12.08
rdiag1                17       0.017       0.288     0.10
rdiag2                17       0.248       4.219     1.52
rdiag3                17       1.662      28.254    10.19
rdiag4                17       0.038       0.654     0.24
r-buildD              17       0.580       9.853     3.55
MIXER                 16       0.018       0.283     0.10
PostSCF                1      29.647      29.647    10.69
DHSCF4                 1      21.146      21.146     7.63
dfscf                  1      20.530      20.530     7.41
overfsm                1       0.092       0.092     0.03
state_analysis         1       0.001       0.001     0.00
siesta_move            1       0.000       0.000     0.00
Analysis               1       7.115       7.115     2.57
siesta_analysis        1       7.115       7.115     2.57
optical                1       0.000       0.000     0.00
CDF-grid               1       1.409       1.409     0.51
  
>> End of run:   5-MAR-2024  20:33:40
Job completed
